NUFEB Simulation 

       0 atoms
       3 atom types

       0   1e-04  xlo xhi
       0   1e-04  ylo yhi
       0   1e-04  zlo zhi
